# t (s)	mx ()	my ()	mz ()	Nx ()	Ny ()	Nz ()	cell size x (nm)	cell size y (nm)	cell size z (nm)	Msat (kA/m)	damping ()	Aex (J)	m_theta (in-plane)	m_phi (out-of-plane)	field (oe)	H_theta (in-plane)	H_phi (out-of-plane)	frequency (GHz)	amplitude (oe)	B_demagx (T)	B_demagy (T)	B_demagz (T)	E_demag (J)	E_total (J)	B_extx (T)	B_exty (T)	B_extz (T)	m.region10x ()	m.region10y ()	m.region10z ()	m.region1x ()	m.region1y ()	m.region1z ()	m.region2x ()	m.region2y ()	m.region2z ()	m.region3x ()	m.region3y ()	m.region3z ()	m.region4x ()	m.region4y ()	m.region4z ()	m.region5x ()	m.region5y ()	m.region5z ()	m.region6x ()	m.region6y ()	m.region6z ()	m.region7x ()	m.region7y ()	m.region7z ()	m.region8x ()	m.region8y ()	m.region8z ()	m.region11x ()	m.region11y ()	m.region11z ()	m.region22x ()	m.region22y ()	m.region22z ()	parameter ()
0	0.03338845	-0.016049052	0.0009781307	118	36	8	5e-09	5e-09	1e-08	0	0.005	13	0	0	0	45	0	15	1e-06	0	0	0	-0	0	0	0	-1.0231009e-18	NaN	NaN	NaN	-0.15449709	0.07570985	0.0025764992	NaN	NaN	NaN	NaN	NaN	NaN	NaN	NaN	NaN	0.15449707	-0.07570986	0.0025764997	NaN	NaN	NaN	NaN	NaN	NaN	NaN	NaN	NaN	NaN	NaN	NaN	NaN	NaN	NaN	0
1.5474250491067255e+11