# OOMMF: rectangular mesh v1.0
# Segment count: 1
# Begin: Segment
# Begin: Header
# Desc: Time (s) :  0
# Title: m
# meshtype: rectangular
# meshunit: m
# xbase: 2.5e-09
# ybase: 2.5e-09
# zbase: 5e-09
# xstepsize: 5e-09
# ystepsize: 5e-09
# zstepsize: 1e-08
# xmin: 0
# ymin: 0
# zmin: 0
# xmax: 5.9e-07
# ymax: 1.8e-07
# zmax: 8e-08
# xnodes: 118
# ynodes: 36
# znodes: 8
# ValueRangeMinMag: 1e-08
# ValueRangeMaxMag: 1
# valueunit: 
# valuemultiplier: 1
# End: Header
# Begin: Data Text
0 -0 -0 
0 -0 -0 
0 -0 -0 
0 -0 -0 
0 -0 -0 
0 -0 -0 
0 -0 -0 
0 -0 -0 
0 -0 -0 
0.80964106 -0.29036206 -0.51006985 
0.33940616 -0.9406399 0 
0.34570536 -0.9383431 0 
0.35222608 -0.93591493 0 
0.35897908 -0.9333456 0 
0.36597586 -0.93062437 0 
0.37322852 -0.92773944 0 
0.3807498 -0.9246781 0 
0.38855326 -0.9214263 0 
0.39665315 -0.9179687 0 
0.40506437 -0.91428816 0 
0.41380295 -0.9103665 0 
0.42288554 -0.90618324 0 
0.4323295 -0.9017158 0 
0.44215328 -0.8969395 0 
0.4523762 -0.89182734 0 
0.46301806 -0.88634884 0 
0.4740998 -0.8804711 0 
0.48564294 -0.87415725 0 
0.49766946 -0.8673668 0 
0.51020193 -0.8600547 0 
0.52326304 -0.85217124 0 
0.5368755 -0.8436615 0 
0.5510615 -0.8344646 0 
0.5658425 -0.8245134 0 
0.5812382 -0.81373346 0 
0.59726614 -0.80204314 0 
0.6139406 -0.78935224 0 
0.6312714 -0.775562 0 
0.64926237 -0.7605645 0 
0.66790974 -0.7442423 0 
0.68719983 -0.72646844 0 
0.7071068 -0.7071068 0 
0.7275894 -0.68601286 0 
0.7485882 -0.6630353 0 
0.77002156 -0.6380179 0 
0.7917824 -0.6108035 0 
0.81373346 -0.5812382 0 
0.8357056 -0.54917794 0 
0.8574929 -0.51449573 0 
0.87885344 -0.47709185 0 
0.8995082 -0.43690395 0 
0.91914505 -0.3939193 0 
0.9374254 -0.34818655 0 
0.95399374 -0.2998266 0 
0.9684929 -0.24904104 0 
0.9805807 -0.19611613 0 
0.9899496 -0.14142138 0 
0.99634665 -0.08540114 0 
0.9995922 -0.028559778 0 
0.9995922 0.028559778 0 
0.99634665 0.08540114 0 
0.9899496 0.14142138 0 
0.9805807 0.19611613 0 
0.9684929 0.24904104 0 
0.95399374 0.2998266 0 
0.9374254 0.34818655 0 
0.91914505 0.3939193 0 
0.8995082 0.43690395 0 
0.87885344 0.47709185 0 
0.8574929 0.51449573 0 
0.8357056 0.54917794 0 
0.81373346 0.5812382 0 
0.7917824 0.6108035 0 
0.77002156 0.6380179 0 
0.7485882 0.6630353 0 
0.7275894 0.68601286 0 
0.7071068 0.7071068 0 
0.68719983 0.72646844 0 
0.66790974 0.7442423 0 
0.64926237 0.7605645 0 
0.6312714 0.775562 0 
0.6139406 0.78935224 0 
0.59726614 0.80204314 0 
0.5812382 0.81373346 0 
0.5658425 0.8245134 0 
0.5510615 0.8344646 0 
0.5368755 0.8436615 0 
0.52326304 0.85217124 0 
0.51020193 0.8600547 0 
0.49766946 0.8673668 0 
0.48564294 0.87415725 0 
0.4740998 0.8804711 0 
0.46301806 0.88634884 0 
0.4523762 0.89182734 0 
0.44215328 0.8969395 0 
0.4323295 0.9017158 0 
0.42288554 0.90618324 0 
0.41380298 0.91036654 0 
0.40506437 0.91428816 0 
0.3966531 0.9179685 0 
0.80964106 -0.29036206 -0.51006985 
0 -0 -0 
0 -0 -0 
0 -0 -0 
0 -0 -0 
0 -0 -0 
0 -0 -0 
0 -0 -0 
0 -0 -0 
0 -0 -0 
0 -0 -0 
0 -0 -0 
0 -0 -0 
0 -0 -0 
0 -0 -0 
0 -0 -0 
0 -0 -0 
0 -0 -0 
0 -0 -0 
0 -0 -0 
0 -0 -0 
0 -0 -0 
0 -0 -0 
0 -0 -0 
0.80964106 -0.29036206 -0.51006985 
0.80964106 -0.29036206 -0.51006985 
0.31057534 -0.9505487 0 
0.31622776 -0.9486833 0 
0.32207772 -0.9467133 0 
0.32813492 -0.94463086 0 
0.33440983 -0.94242775 0 
0.34091344 -0.9400947 0 
0.34765747 -0.9376217 0 
0.35465425 -0.9349976 0 
0.36191696 -0.9322103 0 
0.3694596 -0.9292469 0 
0.3772969 -0.9260924 0 
0.38544464 -0.9227311 0 
0.3939193 -0.91914505 0 
0.4027386 -0.91531503 0 
0.41192114 -0.9112195 0 
0.42148653 -0.90683466 0 
0.4314555 -0.90213424 0 
0.4418499 -0.8970891 0 
0.45269236 -0.89166677 0 
0.464007 -0.88583153 0 
0.47581863 -0.87954354 0 
0.48815286 -0.87275815 0 
0.5010363 -0.8654263 0 
0.5144958 -0.85749304 0 
0.52855843 -0.8488969 0 
0.5432513 -0.83957016 0 
0.5586004 -0.829437 0 
0.57463044 -0.818413 0 
0.59136367 -0.806405 0 
0.60881877 -0.79330933 0 
0.62700945 -0.7790118 0 
0.6459423 -0.7633863 0 
0.66561484 -0.74629545 0 
0.68601286 -0.7275894 0 
0.7071068 -0.7071068 0 
0.7288481 -0.68467546 0 
0.7511649 -0.6601146 0 
0.7739573 -0.6332378 0 
0.79709214 -0.6038577 0 
0.82039815 -0.57179266 0 
0.8436615 -0.5368755 0 
0.86662245 -0.49896446 0 
0.88897455 -0.45795658 0 
0.9103665 -0.41380295 0 
0.9304084 -0.36652452 0 
0.9486833 -0.31622776 0 
0.9647638 -0.2631174 0 
0.9782341 -0.20750421 0 
0.9887155 -0.14980538 0 
0.9958933 -0.09053575 0 
0.9995413 -0.03028913 0 
0.9995413 0.03028913 0 
0.9958933 0.09053575 0 
0.9887155 0.14980538 0 
0.9782341 0.20750421 0 
0.9647638 0.2631174 0 
0.9486833 0.31622776 0 
0.9304084 0.36652452 0 
0.9103665 0.41380295 0 
0.88897455 0.45795658 0 
0.86662245 0.49896446 0 
0.8436615 0.5368755 0 
0.82039815 0.57179266 0 
0.79709214 0.6038577 0 
0.7739573 0.6332378 0 
0.7511649 0.6601146 0 
0.7288481 0.68467546 0 
0.7071068 0.7071068 0 
0.68601286 0.7275894 0 
0.66561484 0.74629545 0 
0.6459423 0.7633863 0 
0.62700945 0.7790118 0 
0.60881877 0.79330933 0 
0.59136367 0.806405 0 
0.57463044 0.818413 0 
0.5586004 0.829437 0 
0.5432513 0.83957016 0 
0.52855843 0.8488969 0 
0.5144958 0.85749304 0 
0.5010363 0.8654263 0 
0.48815286 0.87275815 0 
0.47581863 0.87954354 0 
0.464007 0.88583153 0 
0.45269236 0.89166677 0 
0.4418499 0.8970891 0 
0.4314555 0.90213424 0 
0.42148653 0.90683466 0 
0.41192114 0.9112195 0 
0.4027386 0.91531503 0 
0.3939193 0.91914505 0 
0.38544464 0.9227311 0 
0.3772969 0.9260924 0 
0.3694596 0.9292469 0 
0.36191696 0.9322103 0 
0.80964106 -0.29036206 -0.51006985 
0.80964106 -0.29036206 -0.51006985 
0 -0 -0 
0 -0 -0 
0 -0 -0 
0 -0 -0 
0 -0 -0 
0 -0 -0 
0 -0 -0 
0 -0 -0 
0 -0 -0 
0 -0 -0 
0 -0 -0 
0 -0 -0 
0 -0 -0 
0 -0 -0 
0 -0 -0 
0 -0 -0 
0 -0 -0 
0 -0 -0 
0 -0 -0 
0.80964106 -0.29036206 -0.51006985 
0.2831552 -0.95907414 0 
0.2882007 -0.95757014 0 
0.29342067 -0.9559835 0 
0.29882383 -0.9543084 0 
0.30441943 -0.9525382 0 
0.31021723 -0.9506657 0 
0.31622776 -0.9486833 0 
0.3224621 -0.9465824 0 
0.32893214 -0.9443536 0 
0.3356504 -0.9419866 0 
0.34263036 -0.9394703 0 
0.34988624 -0.9367922 0 
0.35743332 -0.9339387 0 
0.36528778 -0.9308947 0 
0.37346688 -0.92764354 0 
0.38198903 -0.924167 0 
0.39087364 -0.92044437 0 
0.40014166 -0.9164534 0 
0.40981498 -0.9121688 0 
0.41991705 -0.9075626 0 
0.43047252 -0.9026037 0 
0.44150764 -0.8972575 0 
0.45304984 -0.8914852 0 
0.46512792 -0.8852435 0 
0.477772 -0.878484 0 
0.49101305 -0.8711522 0 
0.5048833 -0.8631876 0 
0.5194153 -0.85452193 0 
0.53464174 -0.84507895 0 
0.55059475 -0.8347727 0 
0.5673052 -0.8235076 0 
0.5848016 -0.8111765 0 
0.6031083 -0.79765934 0 
0.6222441 -0.78282326 0 
0.64221984 -0.7665205 0 
0.6630353 -0.7485882 0 
0.68467546 -0.7288481 0 
0.7071068 -0.7071068 0 
0.7302714 -0.68315715 0 
0.7540816 -0.6567807 0 
0.77841306 -0.6277524 0 
0.803098 -0.59584695 0 
0.8279187 -0.5608481 0 
0.85260123 -0.5225621 0 
0.8768124 -0.4808326 0 
0.90015924 -0.43556094 0 
0.9221945 -0.38672674 0 
0.94242775 -0.33440983 0 
0.9603462 -0.2788102 0 
0.9754411 -0.2202609 0 
0.98724115 -0.15923244 0 
0.99535 -0.0963242 0 
0.9994801 -0.032241292 0 
0.9994801 0.032241292 0 
0.99535 0.0963242 0 
0.98724115 0.15923244 0 
0.9754411 0.2202609 0 
0.9603462 0.2788102 0 
0.94242775 0.33440983 0 
0.9221945 0.38672674 0 
0.90015924 0.43556094 0 
0.8768124 0.4808326 0 
0.85260123 0.5225621 0 
0.8279187 0.5608481 0 
0.803098 0.59584695 0 
0.77841306 0.6277524 0 
0.7540816 0.6567807 0 
0.7302714 0.68315715 0 
0.7071068 0.7071068 0 
0.68467546 0.7288481 0 
0.6630353 0.7485882 0 
0.64221984 0.7665205 0 
0.6222441 0.78282326 0 
0.6031083 0.79765934 0 
0.5848016 0.8111765 0 
0.5673052 0.8235076 0 
0.55059475 0.8347727 0 
0.53464174 0.84507895 0 
0.5194153 0.85452193 0 
0.5048833 0.8631876 0 
0.49101305 0.8711522 0 
0.477772 0.878484 0 
0.46512792 0.8852435 0 
0.45304984 0.8914852 0 
0.44150764 0.8972575 0 
0.43047252 0.9026037 0 
0.41991705 0.9075626 0 
0.40981498 0.9121688 0 
0.40014166 0.9164534 0 
0.39087364 0.92044437 0 
0.38198903 0.924167 0 
0.37346688 0.92764354 0 
0.36528778 0.9308947 0 
0.35743332 0.9339387 0 
0.34988624 0.9367922 0 
0.34263036 0.9394703 0 
0.3356504 0.9419866 0 
0.32893214 0.9443536 0 
0.80964106 -0.29036206 -0.51006985 
0 -0 -0 
0 -0 -0 
0 -0 -0 
0 -0 -0 
0 -0 -0 
0 -0 -0 
0 -0 -0 
0 -0 -0 
0 -0 -0 
0 -0 -0 
0 -0 -0 
0 -0 -0 
0 -0 -0 
0 -0 -0 
0 -0 -0 
0 -0 -0 
0 -0 -0 
0.80964106 -0.2903621 -0.51006985 
0.2615905 -0.9651789 0 
0.2662232 -0.96391153 0 
0.2710162 -0.9625748 0 
0.2759778 -0.961164 0 
0.28111652 -0.95967364 0 
0.28644162 -0.9580978 0 
0.29196274 -0.9564297 0 
0.29769048 -0.95466256 0 
0.3036358 -0.9527882 0 
0.30981067 -0.9507983 0 
0.31622776 -0.9486833 0 
0.32290062 -0.9464329 0 
0.32984373 -0.94403553 0 
0.3370726 -0.94147867 0 
0.34460378 -0.93874824 0 
0.352455 -0.93582875 0 
0.3606452 -0.9327031 0 
0.36919466 -0.9293521 0 
0.37812513 -0.9257546 0 
0.3874596 -0.9218867 0 
0.397223 -0.9177221 0 
0.40744165 -0.91323125 0 
0.4181436 -0.9083809 0 
0.42935884 -0.9031341 0 
0.44111884 -0.8974487 0 
0.45345724 -0.891278 0 
0.46640918 -0.8845691 0 
0.48001146 -0.87726235 0 
0.4943022 -0.8692901 0 
0.5093209 -0.8605767 0 
0.5251073 -0.851036 0 
0.5417013 -0.84057105 0 
0.5591417 -0.8290721 0 
0.5774647 -0.81641567 0 
0.59670275 -0.80246234 0 
0.61688167 -0.7870559 0 
0.6380179 -0.77002156 0 
0.6601146 -0.7511649 0 
0.68315715 -0.7302714 0 
0.7071068 -0.7071068 0 
0.73189396 -0.68141854 0 
0.75741 -0.6529396 0 
0.7834977 -0.6213947 0 
0.8099421 -0.5865098 0 
0.8364611 -0.54802626 0 
0.86269796 -0.5057195 0 
0.8882176 -0.45942292 0 
0.9125093 -0.40905592 0 
0.9349976 -0.35465425 0 
0.95506424 -0.29639924 0 
0.9720822 -0.23464054 0 
0.9854601 -0.16990691 0 
0.9946918 -0.10289915 0 
0.9994061 -0.03446228 0 
0.9994061 0.03446228 0 
0.9946918 0.10289915 0 
0.9854601 0.16990691 0 
0.9720822 0.23464054 0 
0.95506424 0.29639924 0 
0.9349976 0.35465425 0 
0.9125093 0.40905592 0 
0.8882176 0.45942292 0 
0.86269796 0.5057195 0 
0.8364611 0.54802626 0 
0.8099421 0.5865098 0 
0.7834977 0.6213947 0 
0.75741 0.6529396 0 
0.73189396 0.68141854 0 
0.7071068 0.7071068 0 
0.68315715 0.7302714 0 
0.6601146 0.7511649 0 
0.6380179 0.77002156 0 
0.61688167 0.7870559 0 
0.59670275 0.80246234 0 
0.5774647 0.81641567 0 
0.5591417 0.8290721 0 
0.5417013 0.84057105 0 
0.5251073 0.851036 0 
0.5093209 0.8605767 0 
0.4943022 0.8692901 0 
0.48001146 0.87726235 0 
0.46640918 0.8845691 0 
0.45345724 0.891278 0 
0.44111884 0.8974487 0 
0.42935884 0.9031341 0 
0.4181436 0.9083809 0 
0.40744165 0.91323125 0 
0.397223 0.9177221 0 
0.3874596 0.9218867 0 
0.37812513 0.9257546 0 
0.36919466 0.9293521 0 
0.3606452 0.9327031 0 
0.352455 0.93582875 0 
0.34460378 0.93874824 0 
0.3370726 0.94147867 0 
0.32984373 0.94403553 0 
0.32290062 0.9464329 0 
0.31622776 0.9486833 0 
0.30981067 0.9507983 0 
0.30363578 0.9527881 0 
0.80964106 -0.2903621 -0.51006985 
0 -0 -0 
0 -0 -0 
0 -0 -0 
0 -0 -0 
0 -0 -0 
0 -0 -0 
0 -0 -0 
0 -0 -0 
0 -0 -0 
0 -0 -0 
0 -0 -0 
0 -0 -0 
0 -0 -0 
0 -0 -0 
0 -0 -0 
0.80964106 -0.2903621 -0.51006985 
0.24043974 -0.97066414 0 
0.24466722 -0.9696071 0 
0.24904104 -0.9684929 0 
0.25356865 -0.9673174 0 
0.25825793 -0.966076 0 
0.2631174 -0.9647638 0 
0.26815605 -0.9633755 0 
0.27338356 -0.9619051 0 
0.2788102 -0.9603462 0 
0.284447 -0.9586918 0 
0.29030582 -0.95693403 0 
0.29639924 -0.95506424 0 
0.30274084 -0.953073 0 
0.30934513 -0.95094985 0 
0.31622776 -0.9486833 0 
0.3234055 -0.9462606 0 
0.33089626 -0.9436671 0 
0.33871946 -0.9408874 0 
0.34689587 -0.93790364 0 
0.35544783 -0.93469614 0 
0.36439937 -0.9312429 0 
0.37377626 -0.9275189 0 
0.3836063 -0.9234967 0 
0.3939193 -0.91914505 0 
0.40474716 -0.9144288 0 
0.41612396 -0.9093079 0 
0.42808634 -0.90373784 0 
0.4406732 -0.8976676 0 
0.4539258 -0.8910395 0 
0.46788773 -0.88378793 0 
0.48260474 -0.8758383 0 
0.49812445 -0.86710554 0 
0.5144958 -0.85749304 0 
0.53176814 -0.84689 0 
0.5499906 -0.83517087 0 
0.56921 -0.8221922 0 
0.5894691 -0.80779094 0 
0.6108034 -0.79178226 0 
0.6332378 -0.7739573 0 
0.6567807 -0.7540816 0 
0.68141854 -0.73189396 0 
0.7071068 -0.7071068 0 
0.7337607 -0.6794081 0 
0.7612432 -0.64846647 0 
0.78935224 -0.6139406 0 
0.8178064 -0.5754934 0 
0.84623295 -0.5328133 0 
0.87415737 -0.485643 0 
0.9010017 -0.43381563 0 
0.9260924 -0.3772969 0 
0.9486833 -0.31622776 1.5e-44 
0.9679969 -0.25096217 8.73e-43 
0.983282 -0.18208925 1.7532e-41 
0.9938837 -0.11043153 1.29546e-40 
0.99931484 -0.03701166 3.52144e-40 
0.99931484 0.03701166 3.52144e-40 
0.9938837 0.11043153 1.29546e-40 
0.983282 0.18208925 1.7532e-41 
0.9679969 0.25096217 8.73e-43 
0.9486833 0.31622776 1.5e-44 
0.9260924 0.3772969 0 
0.9010017 0.43381563 0 
0.87415737 0.485643 0 
0.84623295 0.5328133 0 
0.8178064 0.5754934 0 
0.78935224 0.6139406 0 
0.7612432 0.64846647 0 
0.7337607 0.6794081 0 
0.7071068 0.7071068 0 
0.68141854 0.73189396 0 
0.6567807 0.7540816 0 
0.6332378 0.7739573 0 
0.6108034 0.79178226 0 
0.5894691 0.80779094 0 
0.56921 0.8221922 0 
0.5499906 0.83517087 0 
0.53176814 0.84689 0 
0.5144958 0.85749304 0 
0.49812445 0.86710554 0 
0.48260474 0.8758383 0 
0.46788773 0.88378793 0 
0.4539258 0.8910395 0 
0.4406732 0.8976676 0 
0.42808634 0.90373784 0 
0.41612396 0.9093079 0 
0.40474716 0.9144288 0 
0.3939193 0.91914505 0 
0.3836063 0.9234967 0 
0.37377626 0.9275189 0 
0.36439937 0.9312429 0 
0.35544783 0.93469614 0 
0.34689587 0.93790364 0 
0.33871946 0.9408874 0 
0.33089626 0.9436671 0 
0.3234055 0.9462606 0 
0.31622776 0.9486833 0 
0.30934513 0.95094985 0 
0.30274084 0.953073 0 
0.29639924 0.95506424 0 
0.29030582 0.95693403 0 
0.284447 0.9586918 0 
0.2788102 0.9603463 0 
0.80964106 -0.2903621 -0.51006985 
0 -0 -0 
0 -0 -0 
0 -0 -0 
0 -0 -0 
0 -0 -0 
0 -0 -0 
0 -0 -0 
0 -0 -0 
0 -0 -0 
0 -0 -0 
0 -0 -0 
0 -0 -0 
0 -0 -0 
0.80964106 -0.29036206 -0.51006985 
0.2197213 -0.97556263 0 
0.22355315 -0.97469175 0 
0.22751732 -0.97377414 0 
0.23162052 -0.9728062 0 
0.23587008 -0.9717847 0 
0.24027357 -0.9707052 0 
0.24483931 -0.96956366 0 
0.24957608 -0.9683552 0 
0.25449333 -0.96707463 0 
0.25960106 -0.96571594 0 
0.2649102 -0.9642731 0 
0.2704323 -0.962739 0 
0.27617988 -0.96110594 0 
0.28216633 -0.9593655 0 
0.28840607 -0.9575082 0 
0.2949147 -0.9555236 0 
0.30170888 -0.9534001 0 
0.30880678 -0.9511249 0 
0.31622776 -0.9486833 0 
0.32399297 -0.94605947 0 
0.33212513 -0.94323534 0 
0.34064877 -0.9401906 0 
0.3495905 -0.9369026 0 
0.35897908 -0.9333456 0 
0.36884555 -0.9294908 0 
0.3792234 -0.9253051 0 
0.39014903 -0.92075175 0 
0.4016615 -0.91578823 0 
0.41380295 -0.9103665 0 
0.42661867 -0.9044316 0 
0.4401572 -0.8979207 0 
0.4544704 -0.890762 0 
0.469613 -0.8828724 0 
0.48564294 -0.87415725 0 
0.50262046 -0.8645072 0 
0.5206074 -0.8537962 0 
0.5396662 -0.84187925 0 
0.5598574 -0.82858896 0 
0.5812382 -0.81373346 0 
0.6038577 -0.79709214 0 
0.6277524 -0.77841306 0 
0.6529396 -0.75741 0 
0.6794081 -0.7337607 0 
0.7071068 -0.7071068 0 
0.73593104 -0.67705655 0 
0.7657049 -0.6431921 0 
0.7961622 -0.6050833 0 
0.8269265 -0.56231004 0 
0.8574929 -0.51449573 0 
0.8872168 -0.46135274 1.18e-43 
0.91531503 -0.4027386 4.7657e-41 
0.9408875 -0.3387195 7.072995e-39 
0.9629641 -0.26962996 3.861724e-37 
0.9805807 -0.19611613 7.7564784e-36 
0.9928768 -0.11914522 5.731306e-35 
0.99920106 -0.039968044 1.5579306e-34 
0.99920106 0.039968044 1.5579306e-34 
0.9928768 0.11914522 5.731306e-35 
0.9805807 0.19611613 7.7564784e-36 
0.9629641 0.26962996 3.861724e-37 
0.9408875 0.3387195 7.072995e-39 
0.91531503 0.4027386 4.7657e-41 
0.8872168 0.46135274 1.18e-43 
0.8574929 0.51449573 0 
0.8269265 0.56231004 0 
0.7961622 0.6050833 0 
0.7657049 0.6431921 0 
0.73593104 0.67705655 0 
0.7071068 0.7071068 0 
0.6794081 0.7337607 0 
0.6529396 0.75741 0 
0.6277524 0.77841306 0 
0.6038577 0.79709214 0 
0.5812382 0.81373346 0 
0.5598574 0.82858896 0 
0.5396662 0.84187925 0 
0.5206074 0.8537962 0 
0.50262046 0.8645072 0 
0.48564294 0.87415725 0 
0.469613 0.8828724 0 
0.4544704 0.890762 0 
0.4401572 0.8979207 0 
0.42661867 0.9044316 0 
0.41380295 0.9103665 0 
0.4016615 0.91578823 0 
0.39014903 0.92075175 0 
0.3792234 0.9253051 0 
0.36884555 0.9294908 0 
0.35897908 0.9333456 0 
0.3495905 0.9369026 0 
0.34064877 0.9401906 0 
0.33212513 0.94323534 0 
0.32399297 0.94605947 0 
0.31622776 0.9486833 0 
0.30880678 0.9511249 0 
0.30170888 0.9534001 0 
0.2949147 0.9555236 0 
0.28840607 0.9575082 0 
0.28216633 0.9593655 0 
0.27617988 0.96110594 0 
0.2704323 0.962739 0 
0.2649102 0.9642731 0 
0.25960106 0.96571594 0 
0.25449327 0.96707445 0 
0.80964106 -0.29036206 -0.51006985 
0 -0 -0 
0 -0 -0 
0 -0 -0 
0 -0 -0 
0 -0 -0 
0 -0 -0 
0 -0 -0 
0 -0 -0 
0 -0 -0 
0 -0 -0 
0 -0 -0 
0.80964106 -0.29036206 -0.51006985 
0.1994503 -0.97990793 0 
0.20289733 -0.9792001 0 
0.20646289 -0.97845453 0 
0.21015304 -0.9776685 0 
0.21397433 -0.9768393 0 
0.21793362 -0.9759636 0 
0.22203834 -0.97503793 0 
0.22629641 -0.9740585 0 
0.23071633 -0.97302103 0 
0.2353072 -0.971921 0 
0.24007879 -0.97075343 0 
0.24504164 -0.9695126 0 
0.25020704 -0.96819246 0 
0.2555871 -0.966786 0 
0.26119506 -0.96528614 0 
0.267045 -0.9636841 0 
0.2731522 -0.9619708 0 
0.2795333 -0.9601361 0 
0.28620607 -0.9581681 0 
0.29318994 -0.9560542 0 
0.300506 -0.95377994 0 
0.30817702 -0.95132905 0 
0.31622776 -0.9486833 0 
0.32468525 -0.94582224 0 
0.33357865 -0.94272226 0 
0.34293997 -0.93935734 0 
0.35280392 -0.9356974 0 
0.3632082 -0.931708 0 
0.37419403 -0.92735046 0 
0.38580614 -0.9225799 0 
0.39809316 -0.9173451 0 
0.41110775 -0.91158676 0 
0.42490715 -0.90523696 0 
0.43955287 -0.8982167 0 
0.45511106 -0.8904347 0 
0.47165224 -0.8817846 0 
0.489251 -0.87214303 0 
0.507985 -0.8613659 0 
0.52793413 -0.8492853 0 
0.54917794 -0.8357056 0 
0.57179266 -0.82039815 0 
0.59584695 -0.803098 0 
0.6213947 -0.7834977 0 
0.64846647 -0.7612432 0 
0.67705655 -0.73593104 0 
0.7071068 -0.7071068 0 
0.7384855 -0.6742694 0 
0.77096176 -0.6368815 0 
0.80417615 -0.59439105 6e-45 
0.8376106 -0.5462678 1.7532e-41 
0.87056285 -0.49205726 1.9226388e-38 
0.90213424 -0.4314555 7.7564784e-36 
0.93124276 -0.36439934 1.15116355e-33 
0.956674 -0.29116166 6.28514e-32 
0.97717637 -0.21242964 1.2624041e-30 
0.9916005 -0.1293392 9.327975e-30 
0.99905616 -0.043437224 2.5356062e-29 
0.99905616 0.043437224 2.5356062e-29 
0.9916005 0.1293392 9.327975e-30 
0.97717637 0.21242964 1.2624041e-30 
0.956674 0.29116166 6.28514e-32 
0.93124276 0.36439934 1.15116355e-33 
0.90213424 0.4314555 7.7564784e-36 
0.87056285 0.49205726 1.9226388e-38 
0.8376106 0.5462678 1.7532e-41 
0.80417615 0.59439105 6e-45 
0.77096176 0.6368815 0 
0.7384855 0.6742694 0 
0.7071068 0.7071068 0 
0.67705655 0.73593104 0 
0.64846647 0.7612432 0 
0.6213947 0.7834977 0 
0.59584695 0.803098 0 
0.57179266 0.82039815 0 
0.54917794 0.8357056 0 
0.52793413 0.8492853 0 
0.507985 0.8613659 0 
0.489251 0.87214303 0 
0.47165224 0.8817846 0 
0.45511106 0.8904347 0 
0.43955287 0.8982167 0 
0.42490715 0.90523696 0 
0.41110775 0.91158676 0 
0.39809316 0.9173451 0 
0.38580614 0.9225799 0 
0.37419403 0.92735046 0 
0.3632082 0.931708 0 
0.35280392 0.9356974 0 
0.34293997 0.93935734 0 
0.33357865 0.94272226 0 
0.32468525 0.94582224 0 
0.31622776 0.9486833 0 
0.30817702 0.95132905 0 
0.300506 0.95377994 0 
0.29318994 0.9560542 0 
0.28620607 0.9581681 0 
0.2795333 0.9601361 0 
0.2731522 0.9619708 0 
0.267045 0.9636841 0 
0.26119506 0.96528614 0 
0.2555871 0.966786 0 
0.25020704 0.96819246 0 
0.24504164 0.9695126 0 
0.24007879 0.97075343 0 
0.2353072 0.971921 0 
0.23071635 0.97302103 0 
0.80964106 -0.29036206 -0.51006985 
0 -0 -0 
0 -0 -0 
0 -0 -0 
0 -0 -0 
0 -0 -0 
0 -0 -0 
0 -0 -0 
0 -0 -0 
0 -0 -0 
0 -0 -0 
0.80964106 -0.29036206 -0.51006985 
0.18271236 -0.9831665 0 
0.18589167 -0.98257023 0 
0.1891815 -0.9819421 0 
0.19258761 -0.9812798 0 
0.19611613 -0.9805807 0 
0.19977365 -0.9798422 0 
0.20356713 -0.979061 0 
0.20750424 -0.97823423 0 
0.21159297 -0.977358 0 
0.21584207 -0.9764284 0 
0.2202609 -0.9754411 0 
0.2248595 -0.9743912 0 
0.22964881 -0.9732736 0 
0.23464057 -0.9720823 0 
0.23984733 -0.9708106 0 
0.24528292 -0.96945155 0 
0.25096217 -0.9679969 0 
0.25690114 -0.9664377 0 
0.2631174 -0.9647638 0 
0.26962993 -0.962964 0 
0.27645943 -0.9610256 0 
0.28362843 -0.95893425 0 
0.29116166 -0.956674 0 
0.29908586 -0.9542263 0 
0.30743048 -0.9515706 0 
0.31622776 -0.9486833 0 
0.32551295 -0.94553757 0 
0.3353247 -0.94210273 0 
0.34570536 -0.9383431 0 
0.35670155 -0.9342184 0 
0.3683644 -0.9296816 0 
0.3807498 -0.9246781 0 
0.3939193 -0.91914505 0 
0.40794012 -0.9130088 0 
0.42288554 -0.90618324 0 
0.43883535 -0.8985676 0 
0.45587587 -0.8900434 0 
0.4740998 -0.8804711 0 
0.49360552 -0.8696859 0 
0.5144958 -0.85749304 0 
0.5368755 -0.8436615 0 
0.5608481 -0.8279187 0 
0.5865098 -0.8099421 0 
0.6139406 -0.78935224 0 
0.6431921 -0.7657049 0 
0.6742694 -0.7384855 0 
0.7071068 -0.7071068 0 
0.7415358 -0.67091334 4.3e-44 
0.77724487 -0.62919825 3.52144e-40 
0.81373346 -0.5812382 1.0497253e-36 
0.85026515 -0.5263546 1.15116355e-33 
0.88583153 -0.464007 4.644125e-31 
0.91914505 -0.3939193 6.892493e-29 
0.9486833 -0.31622776 3.7631735e-27 
0.9728062 -0.23162052 7.558536e-26 
0.9899496 -0.14142138 5.585045e-25 
0.99886817 -0.04756515 1.5181726e-24 
0.99886817 0.04756515 1.5181726e-24 
0.9899496 0.14142138 5.585045e-25 
0.9728062 0.23162052 7.558536e-26 
0.9486833 0.31622776 3.7631735e-27 
0.91914505 0.3939193 6.892493e-29 
0.88583153 0.464007 4.644125e-31 
0.85026515 0.5263546 1.15116355e-33 
0.81373346 0.5812382 1.0497253e-36 
0.77724487 0.62919825 3.52144e-40 
0.7415358 0.67091334 4.3e-44 
0.7071068 0.7071068 0 
0.6742694 0.7384855 0 
0.6431921 0.7657049 0 
0.6139406 0.78935224 0 
0.5865098 0.8099421 0 
0.5608481 0.8279187 0 
0.5368755 0.8436615 0 
0.5144958 0.85749304 0 
0.49360552 0.8696859 0 
0.4740998 0.8804711 0 
0.45587587 0.8900434 0 
0.43883535 0.8985676 0 
0.42288554 0.90618324 0 
0.40794012 0.9130088 0 
0.3939193 0.91914505 0 
0.3807498 0.9246781 0 
0.3683644 0.9296816 0 
0.35670155 0.9342184 0 
0.34570536 0.9383431 0 
0.3353247 0.94210273 0 
0.32551295 0.94553757 0 
0.31622776 0.9486833 0 
0.30743048 0.9515706 0 
0.29908586 0.9542263 0 
0.29116166 0.956674 0 
0.28362843 0.95893425 0 
0.27645943 0.9610256 0 
0.26962993 0.962964 0 
0.2631174 0.9647638 0 
0.25690114 0.9664377 0 
0.25096217 0.9679969 0 
0.24528292 0.96945155 0 
0.23984733 0.9708106 0 
0.23464057 0.9720823 0 
0.22964881 0.9732736 0 
0.2248595 0.9743912 0 
0.2202609 0.9754411 0 
0.21584207 0.9764284 0 
0.21159297 0.977358 0 
0.80964106 -0.29036206 -0.51006985 
0 -0 -0 
0 -0 -0 
0 -0 -0 
0 -0 -0 
0 -0 -0 
0 -0 -0 
0 -0 -0 
0 -0 -0 
0 -0 -0 
0 -0 -0 
0.16300757 -0.98662484 0 
0.16581401 -0.98615706 0 
0.16871734 -0.9856645 0 
0.17172259 -0.98514545 0 
0.17483512 -0.98459774 0 
0.17806068 -0.9840195 0 
0.18140544 -0.9834085 0 
0.184876 -0.98276186 0 
0.18847948 -0.98207724 0 
0.19222343 -0.9813512 0 
0.19611613 -0.9805807 0 
0.20016642 -0.9797619 0 
0.2043838 -0.97889084 0 
0.2087786 -0.9779629 0 
0.21336196 -0.97697324 0 
0.218146 -0.97591627 0 
0.22314368 -0.97478557 0 
0.22836934 -0.9735746 0 
0.23383841 -0.9722755 0 
0.23956771 -0.9708797 0 
0.24557562 -0.96937746 0 
0.25188223 -0.967758 0 
0.2585094 -0.9660087 0 
0.26548123 -0.96411604 0 
0.27282414 -0.962064 0 
0.280567 -0.95983446 0 
0.2887418 -0.957407 0 
0.2973837 -0.95475817 0 
0.30653137 -0.95186055 0 
0.31622776 -0.9486833 0 
0.32652026 -0.9451902 0 
0.3374613 -0.94133943 0 
0.34910902 -0.9370821 0 
0.36152786 -0.9323613 0 
0.37478918 -0.9271101 0 
0.38897204 -0.92124957 0 
0.40416384 -0.9146866 0 
0.42046106 -0.9073107 0 
0.43796942 -0.89898986 0 
0.4568047 -0.889567 0 
0.47709185 -0.87885344 0 
0.49896452 -0.86662257 0 
0.52256215 -0.85260135 0 
0.54802626 -0.8364611 0 
0.5754934 -0.8178064 0 
0.6050833 -0.7961622 0 
0.6368815 -0.77096176 0 
0.67091334 -0.7415358 4.3e-44 
0.7071068 -0.7071068 9.57226e-40 
0.74524134 -0.6667949 7.756479e-36 
0.7848828 -0.6196443 2.3121737e-32 
0.82530725 -0.5646839 2.5356062e-29 
0.8654263 -0.5010363 1.0229366e-26 
0.90373784 -0.42808634 1.5181726e-24 
0.9383431 -0.34570536 8.2889414e-23 
0.96707463 -0.25449333 1.6648786e-21 
0.987763 -0.15596257 1.2301879e-20 
0.9986178 -0.052558832 3.3439975e-20 
0.9986178 0.052558832 3.3439975e-20 
0.987763 0.15596257 1.2301879e-20 
0.96707463 0.25449333 1.6648786e-21 
0.9383431 0.34570536 8.2889414e-23 
0.90373784 0.42808634 1.5181726e-24 
0.8654263 0.5010363 1.0229366e-26 
0.82530725 0.5646839 2.5356062e-29 
0.7848828 0.6196443 2.3121737e-32 
0.74524134 0.6667949 7.756479e-36 
0.7071068 0.7071068 9.57226e-40 
0.67091334 0.7415358 4.3e-44 
0.6368815 0.77096176 0 
0.6050833 0.7961622 0 
0.5754934 0.8178064 0 
0.54802626 0.8364611 0 
0.52256215 0.85260135 0 
0.49896452 0.86662257 0 
0.47709185 0.87885344 0 
0.4568047 0.889567 0 
0.43796942 0.89898986 0 
0.42046106 0.9073107 0 
0.40416384 0.9146866 0 
0.38897204 0.92124957 0 
0.37478918 0.9271101 0 
0.36152786 0.9323613 0 
0.34910902 0.9370821 0 
0.3374613 0.94133943 0 
0.32652026 0.9451902 0 
0.31622776 0.9486833 0 
0.30653137 0.95186055 0 
0.2973837 0.95475817 0 
0.2887418 0.957407 0 
0.280567 0.95983446 0 
0.27282414 0.962064 0 
0.26548123 0.96411604 0 
0.2585094 0.9660087 0 
0.25188223 0.967758 0 
0.24557562 0.96937746 0 
0.23956771 0.9708797 0 
0.23383841 0.9722755 0 
0.22836934 0.9735746 0 
0.22314368 0.97478557 0 
0.218146 0.97591627 0 
0.21336196 0.97697324 0 
0.2087786 0.9779629 0 
0.2043838 0.97889084 0 
0.20016642 0.9797619 0 
0.19611613 0.9805807 0 
0.19222343 0.9813512 0 
0.18847947 0.9820772 0 
0 -0 -0 
0 -0 -0 
0 -0 -0 
0 -0 -0 
0 -0 -0 
0 -0 -0 
0 -0 -0 
0 -0 -0 
0 -0 -0 
0.80964106 -0.29036206 -0.51006985 
0.1462369 -0.9892496 0 
0.14876837 -0.98887205 0 
0.15138797 -0.9884744 0 
0.15410036 -0.9880552 0 
0.15691045 -0.98761284 0 
0.15982357 -0.9871456 0 
0.1628454 -0.9866516 0 
0.16598208 -0.98612887 0 
0.16924013 -0.98557484 0 
0.17262666 -0.98498744 0 
0.17614925 -0.9843635 0 
0.17981619 -0.98370034 0 
0.1836363 -0.98299426 0 
0.18761925 -0.9822419 0 
0.19177544 -0.98143893 0 
0.19611613 -0.9805807 0 
0.20065372 -0.97966224 0 
0.20540151 -0.9786778 0 
0.21037413 -0.97762096 0 
0.2155875 -0.97648454 0 
0.22105902 -0.97526044 0 
0.22680783 -0.97393954 0 
0.23285489 -0.9725116 0 
0.23922317 -0.9709646 0 
0.24593812 -0.96928555 0 
0.25302774 -0.967459 0 
0.26052302 -0.96546763 0 
0.26845825 -0.96329135 0 
0.2768715 -0.960907 0 
0.28580514 -0.9582878 0 
0.2953063 -0.95540273 0 
0.30542755 -0.9522153 0 
0.31622776 -0.9486833 0 
0.3277727 -0.9447566 0 
0.34013608 -0.9403762 0 
0.3534006 -0.9354722 0 
0.36765888 -0.9299607 0 
0.38301504 -0.9237421 0 
0.39958543 -0.91669595 0 
0.41750017 -0.90867686 0 
0.43690395 -0.8995082 0 
0.45795658 -0.88897455 0 
0.48083267 -0.8768125 0 
0.5057195 -0.86269796 0 
0.5328133 -0.84623295 0 
0.56231004 -0.8269265 0 
0.59439105 -0.80417615 6e-45 
0.62919825 -0.77724487 3.52144e-40 
0.6667949 -0.74524134 7.756479e-36 
0.7071068 -0.7071068 6.28514e-32 
0.7498379 -0.66162163 1.8735738e-28 
0.79435784 -0.6074501 2.0546231e-25 
0.83957016 -0.5432513 8.2889414e-23 
0.88378793 -0.46788773 1.2301879e-20 
0.9246782 -0.38074985 6.7165996e-19 
0.9593655 -0.28216633 1.3490649e-17 
0.98478365 -0.17378534 9.968318e-17 
0.9982744 -0.058722023 2.7096693e-16 
0.9982744 0.058722023 2.7096693e-16 
0.98478365 0.17378534 9.968318e-17 
0.9593655 0.28216633 1.3490649e-17 
0.9246782 0.38074985 6.7165996e-19 
0.88378793 0.46788773 1.2301879e-20 
0.83957016 0.5432513 8.2889414e-23 
0.79435784 0.6074501 2.0546231e-25 
0.7498379 0.66162163 1.8735738e-28 
0.7071068 0.7071068 6.28514e-32 
0.6667949 0.74524134 7.756479e-36 
0.62919825 0.77724487 3.52144e-40 
0.59439105 0.80417615 6e-45 
0.56231004 0.8269265 0 
0.5328133 0.84623295 0 
0.5057195 0.86269796 0 
0.48083267 0.8768125 0 
0.45795658 0.88897455 0 
0.43690395 0.8995082 0 
0.41750017 0.90867686 0 
0.39958543 0.91669595 0 
0.38301504 0.9237421 0 
0.36765888 0.9299607 0 
0.3534006 0.9354722 0 
0.34013608 0.9403762 0 
0.3277727 0.9447566 0 
0.31622776 0.9486833 0 
0.30542755 0.9522153 0 
0.2953063 0.95540273 0 
0.28580514 0.9582878 0 
0.2768715 0.960907 0 
0.26845825 0.96329135 0 
0.26052302 0.96546763 0 
0.25302774 0.967459 0 
0.24593812 0.96928555 0 
0.23922317 0.9709646 0 
0.23285489 0.9725116 0 
0.22680783 0.97393954 0 
0.22105902 0.97526044 0 
0.2155875 0.97648454 0 
0.21037413 0.97762096 0 
0.20540151 0.9786778 0 
0.20065372 0.97966224 0 
0.19611613 0.9805807 0 
0.19177544 0.98143893 0 
0.18761925 0.9822419 0 
0.1836363 0.98299426 0 
0.17981619 0.98370034 0 
0.17614925 0.9843635 0 
0.17262666 0.98498744 0 
0.16924013 0.98557484 0 
0.80964106 -0.29036206 -0.51006985 
0 -0 -0 
0 -0 -0 
0 -0 -0 
0 -0 -0 
0 -0 -0 
0 -0 -0 
0 -0 -0 
0 -0 -0 
0.12716432 -0.99188167 0 
0.12933919 -0.9916004 0 
0.13158907 -0.99130434 0 
0.1339179 -0.9909924 0 
0.13632984 -0.9906635 0 
0.1388294 -0.99031633 0 
0.14142138 -0.9899496 0 
0.1441109 -0.98956156 0 
0.14690359 -0.9891508 0 
0.14980538 -0.9887155 0 
0.15282273 -0.9882537 0 
0.15596257 -0.987763 0 
0.15923244 -0.98724115 0 
0.16264045 -0.9866854 0 
0.16619542 -0.98609287 0 
0.16990691 -0.9854601 0 
0.17378534 -0.98478365 0 
0.177842 -0.98405915 0 
0.18208925 -0.983282 0 
0.18654062 -0.98244727 0 
0.19121084 -0.98154896 0 
0.19611613 -0.9805807 0 
0.2012743 -0.9795349 0 
0.20670493 -0.97840333 0 
0.21242964 -0.97717637 0 
0.21847238 -0.97584325 0 
0.2248595 -0.9743912 0 
0.23162052 -0.9728062 0 
0.23878813 -0.9710717 0 
0.24639878 -0.96916854 0 
0.25449333 -0.96707463 0 
0.2631174 -0.9647638 0 
0.27232248 -0.96220607 0 
0.28216633 -0.9593655 0 
0.2927143 -0.95620006 0 
0.3040402 -0.9526593 0 
0.31622776 -0.9486833 0 
0.3293722 -0.9442003 0 
0.34358153 -0.93912286 0 
0.35897908 -0.9333456 0 
0.37570512 -0.9267393 0 
0.3939193 -0.91914505 0 
0.41380295 -0.9103665 0 
0.43556094 -0.90015924 0 
0.45942298 -0.88821775 0 
0.48564294 -0.87415725 0 
0.5144958 -0.85749304 0 
0.5462678 -0.8376106 1.7532e-41 
0.5812382 -0.81373346 1.0497253e-36 
0.6196443 -0.7848828 2.3121737e-32 
0.66162163 -0.7498379 1.8735738e-28 
0.7071068 -0.7071068 5.585045e-25 
0.7556891 -0.65493053 6.1247454e-22 
0.806405 -0.59136367 2.4708986e-19 
0.8574929 -0.51449573 3.6671385e-17 
0.9061831 -0.42288548 2.0021898e-15 